<?xml version="1.0" encoding="UTF-8"?>

<!-- generated on 2021-11-04 10:28:40 by Eclipse SUMO GUI Version 1.10.0
<configuration xmlns:xsi="http://www.w3.org/2001/XMLSchema-instance" xsi:noNamespaceSchemaLocation="http://sumo.dlr.de/xsd/sumoConfiguration.xsd">

    <input>
        <net-file value="C:\Traffic_Simulation\Test_1\Map\map.net.xml"/>
        <route-files value="C:\Traffic_Simulation\Test_1\Map\map.rou.xml"/>
        <additional-files value="C:\Traffic_Simulation\Test_1\Map\map.poly.xml"/>
    </input>

    <output>
        <write-license value="true"/>
        <tripinfo-output value="C:\Traffic_Simulation\Test_1\Map\tripinfo.xml"/>
    </output>

    <time>
        <begin value="0"/>
        <end value="10000"/>
    </time>

</configuration>
-->

<tripinfos xmlns:xsi="http://www.w3.org/2001/XMLSchema-instance" xsi:noNamespaceSchemaLocation="http://sumo.dlr.de/xsd/tripinfo_file.xsd">
</tripinfos>
